<?xml version="1.0" encoding="UTF-8"?>

<!-- generated on 2021-10-24 19:13:00 by Eclipse SUMO sumo Version 1.10.0
<configuration xmlns:xsi="http://www.w3.org/2001/XMLSchema-instance" xsi:noNamespaceSchemaLocation="http://sumo.dlr.de/xsd/sumoConfiguration.xsd">

    <input>
        <net-file value="C:\Users\Delmith\Desktop\Faculdade\9%20Periodo\TCC\SUMO\cruzamentoBRT.net.xml"/>
        <route-files value="C:\Users\Delmith\Desktop\Faculdade\9%20Periodo\TCC\SUMO\CruzamentoBRT_38.rou.xml"/>
    </input>

    <output>
        <tripinfo-output value="true"/>
    </output>

    <time>
        <end value="2400"/>
        <step-length value="0.2"/>
    </time>

    <gui_only>
        <gui-settings-file value="C:\Users\Delmith\Desktop\Faculdade\9%20Periodo\TCC\SUMO\map.settings.cfg"/>
        <tracker-interval value="0.2"/>
    </gui_only>

</configuration>
-->

<tripinfos xmlns:xsi="http://www.w3.org/2001/XMLSchema-instance" xsi:noNamespaceSchemaLocation="http://sumo.dlr.de/xsd/tripinfo_file.xsd">
    <tripinfo id="flow2_rota7.0" depart="8.80" departLane="gneE9_0" departPos="2.30" departSpeed="0.00" departDelay="8.80" arrival="49.00" arrivalLane="gneE1_0" arrivalPos="310.15" arrivalSpeed="15.73" duration="40.20" routeLength="502.49" waitingTime="0.00" waitingCount="0" stopTime="0.00" timeLoss="8.54" rerouteNo="0" devices="tripinfo_flow2_rota7.0" vType="moto" speedFactor="1.16" vaporized=""/>
    <tripinfo id="flow1_rota7.0" depart="6.80" departLane="gneE9_0" departPos="5.10" departSpeed="0.00" departDelay="6.80" arrival="49.80" arrivalLane="gneE1_0" arrivalPos="310.15" arrivalSpeed="12.98" duration="43.00" routeLength="499.69" waitingTime="0.00" waitingCount="0" stopTime="0.00" timeLoss="4.08" rerouteNo="0" devices="tripinfo_flow1_rota7.0" vType="carro" speedFactor="0.94" vaporized=""/>
    <tripinfo id="flow1_rota6.0" depart="0.00" departLane="gneE9_0" departPos="5.10" departSpeed="0.00" departDelay="0.00" arrival="50.00" arrivalLane="gneE8_0" arrivalPos="327.47" arrivalSpeed="12.71" duration="50.00" routeLength="505.57" waitingTime="2.80" waitingCount="1" stopTime="0.00" timeLoss="10.03" rerouteNo="0" devices="tripinfo_flow1_rota6.0" vType="carro" speedFactor="0.93" vaporized=""/>
    <tripinfo id="flow2_rota6.0" depart="2.00" departLane="gneE9_0" departPos="2.30" departSpeed="0.00" departDelay="2.00" arrival="50.80" arrivalLane="gneE8_1" arrivalPos="327.47" arrivalSpeed="11.94" duration="48.80" routeLength="512.79" waitingTime="2.20" waitingCount="1" stopTime="0.00" timeLoss="6.06" rerouteNo="0" devices="tripinfo_flow2_rota6.0" vType="moto" speedFactor="0.88" vaporized=""/>
    <tripinfo id="flow3_rota6.0" depart="3.00" departLane="gneE9_0" departPos="7.20" departSpeed="0.00" departDelay="3.00" arrival="51.60" arrivalLane="gneE8_0" arrivalPos="327.47" arrivalSpeed="13.41" duration="48.60" routeLength="503.47" waitingTime="0.00" waitingCount="0" stopTime="0.00" timeLoss="10.67" rerouteNo="0" devices="tripinfo_flow3_rota6.0" vType="caminhao" speedFactor="0.97" vaporized=""/>
    <tripinfo id="flow2_rota4.0" depart="2.20" departLane="gneE11_0" departPos="2.30" departSpeed="0.00" departDelay="2.20" arrival="64.80" arrivalLane="gneE8_1" arrivalPos="327.47" arrivalSpeed="14.68" duration="62.60" routeLength="570.70" waitingTime="9.40" waitingCount="1" stopTime="0.00" timeLoss="24.20" rerouteNo="0" devices="tripinfo_flow2_rota4.0" vType="moto" speedFactor="1.09" vaporized=""/>
    <tripinfo id="flow1_rota2.0" depart="12.40" departLane="gneE0_0" departPos="5.10" departSpeed="0.00" departDelay="12.40" arrival="65.20" arrivalLane="gneE10_0" arrivalPos="213.99" arrivalSpeed="14.90" duration="52.80" routeLength="550.95" waitingTime="2.80" waitingCount="1" stopTime="0.00" timeLoss="15.34" rerouteNo="0" devices="tripinfo_flow1_rota2.0" vType="carro" speedFactor="1.08" vaporized=""/>
    <tripinfo id="flow2_rota2.0" depart="14.00" departLane="gneE0_0" departPos="2.30" departSpeed="0.00" departDelay="14.00" arrival="67.80" arrivalLane="gneE10_0" arrivalPos="213.99" arrivalSpeed="14.30" duration="53.80" routeLength="553.75" waitingTime="0.00" waitingCount="0" stopTime="0.00" timeLoss="14.21" rerouteNo="0" devices="tripinfo_flow2_rota2.0" vType="moto" speedFactor="1.03" vaporized=""/>
    <tripinfo id="flow1_rota4.0" depart="0.00" departLane="gneE11_0" departPos="5.10" departSpeed="0.00" departDelay="0.00" arrival="68.60" arrivalLane="gneE8_0" arrivalPos="327.47" arrivalSpeed="11.72" duration="68.60" routeLength="567.90" waitingTime="12.80" waitingCount="1" stopTime="0.00" timeLoss="20.12" rerouteNo="0" devices="tripinfo_flow1_rota4.0" vType="carro" speedFactor="0.86" vaporized=""/>
    <tripinfo id="flow1_rota1.0" depart="0.00" departLane="gneE0_0" departPos="5.10" departSpeed="0.00" departDelay="0.00" arrival="71.00" arrivalLane="gneE1_0" arrivalPos="310.15" arrivalSpeed="14.68" duration="71.00" routeLength="656.58" waitingTime="17.40" waitingCount="1" stopTime="0.00" timeLoss="26.36" rerouteNo="0" devices="tripinfo_flow1_rota1.0" vType="carro" speedFactor="1.06" vaporized=""/>
    <tripinfo id="flow2_rota1.0" depart="2.00" departLane="gneE0_0" departPos="2.30" departSpeed="0.00" departDelay="2.00" arrival="72.00" arrivalLane="gneE1_0" arrivalPos="310.15" arrivalSpeed="12.83" duration="70.00" routeLength="659.38" waitingTime="14.60" waitingCount="1" stopTime="0.00" timeLoss="19.32" rerouteNo="0" devices="tripinfo_flow2_rota1.0" vType="moto" speedFactor="0.94" vaporized=""/>
    <tripinfo id="flow3_rota2.0" depart="16.00" departLane="gneE0_0" departPos="7.20" departSpeed="0.00" departDelay="16.00" arrival="73.00" arrivalLane="gneE10_0" arrivalPos="213.99" arrivalSpeed="12.68" duration="57.00" routeLength="548.85" waitingTime="0.00" waitingCount="0" stopTime="0.00" timeLoss="12.88" rerouteNo="0" devices="tripinfo_flow3_rota2.0" vType="caminhao" speedFactor="0.92" vaporized=""/>
    <tripinfo id="flow1_rota3.0" depart="0.00" departLane="gneE2_0" departPos="5.10" departSpeed="0.00" departDelay="0.00" arrival="73.00" arrivalLane="gneE8_1" arrivalPos="327.47" arrivalSpeed="14.33" duration="73.00" routeLength="652.77" waitingTime="19.00" waitingCount="1" stopTime="0.00" timeLoss="27.98" rerouteNo="0" devices="tripinfo_flow1_rota3.0" vType="carro" speedFactor="1.05" vaporized=""/>
    <tripinfo id="flow2_rota3.0" depart="2.00" departLane="gneE2_0" departPos="2.30" departSpeed="0.00" departDelay="2.00" arrival="75.20" arrivalLane="gneE8_0" arrivalPos="327.47" arrivalSpeed="12.31" duration="73.20" routeLength="655.57" waitingTime="15.40" waitingCount="1" stopTime="0.00" timeLoss="19.94" rerouteNo="0" devices="tripinfo_flow2_rota3.0" vType="moto" speedFactor="0.89" vaporized=""/>
    <tripinfo id="flow3_rota1.0" depart="3.00" departLane="gneE0_0" departPos="7.20" departSpeed="0.00" departDelay="3.00" arrival="76.00" arrivalLane="gneE1_0" arrivalPos="310.15" arrivalSpeed="13.86" duration="73.00" routeLength="654.48" waitingTime="6.80" waitingCount="1" stopTime="0.00" timeLoss="26.10" rerouteNo="0" devices="tripinfo_flow3_rota1.0" vType="caminhao" speedFactor="1.01" vaporized=""/>
    <tripinfo id="flow4_rota1.0" depart="8.40" departLane="gneE0_0" departPos="12.10" departSpeed="0.00" departDelay="8.40" arrival="77.80" arrivalLane="gneE1_0" arrivalPos="310.15" arrivalSpeed="13.83" duration="69.40" routeLength="649.58" waitingTime="1.40" waitingCount="1" stopTime="0.00" timeLoss="22.58" rerouteNo="0" devices="tripinfo_flow4_rota1.0" vType="onibus" speedFactor="1.00" vaporized=""/>
    <tripinfo id="flow3_rota3.0" depart="3.00" departLane="gneE2_0" departPos="7.20" departSpeed="0.00" departDelay="3.00" arrival="78.20" arrivalLane="gneE8_1" arrivalPos="327.47" arrivalSpeed="13.44" duration="75.20" routeLength="650.67" waitingTime="8.00" waitingCount="1" stopTime="0.00" timeLoss="26.83" rerouteNo="0" devices="tripinfo_flow3_rota3.0" vType="caminhao" speedFactor="0.97" vaporized=""/>
    <tripinfo id="flow4_rota3.0" depart="8.40" departLane="gneE2_0" departPos="12.10" departSpeed="0.00" departDelay="8.40" arrival="78.60" arrivalLane="gneE8_0" arrivalPos="327.47" arrivalSpeed="13.78" duration="70.20" routeLength="645.77" waitingTime="4.00" waitingCount="1" stopTime="0.00" timeLoss="23.62" rerouteNo="0" devices="tripinfo_flow4_rota3.0" vType="onibus" speedFactor="1.00" vaporized=""/>
    <tripinfo id="flow2_rota1.1" depart="22.00" departLane="gneE0_0" departPos="2.30" departSpeed="0.00" departDelay="10.39" arrival="82.00" arrivalLane="gneE1_0" arrivalPos="310.15" arrivalSpeed="12.23" duration="60.00" routeLength="659.38" waitingTime="0.00" waitingCount="0" stopTime="0.00" timeLoss="8.12" rerouteNo="0" devices="tripinfo_flow2_rota1.1" vType="moto" speedFactor="0.92" vaporized=""/>
    <tripinfo id="flow2_rota3.1" depart="14.20" departLane="gneE2_0" departPos="2.30" departSpeed="0.00" departDelay="2.59" arrival="82.00" arrivalLane="gneE8_0" arrivalPos="327.47" arrivalSpeed="12.98" duration="67.80" routeLength="655.57" waitingTime="2.20" waitingCount="1" stopTime="0.00" timeLoss="18.02" rerouteNo="0" devices="tripinfo_flow2_rota3.1" vType="moto" speedFactor="0.95" vaporized=""/>
    <tripinfo id="flow1_rota3.1" depart="12.20" departLane="gneE2_0" departPos="5.10" departSpeed="0.00" departDelay="5.75" arrival="82.40" arrivalLane="gneE8_0" arrivalPos="327.47" arrivalSpeed="12.09" duration="70.20" routeLength="652.77" waitingTime="1.80" waitingCount="1" stopTime="0.00" timeLoss="16.19" rerouteNo="0" devices="tripinfo_flow1_rota3.1" vType="carro" speedFactor="0.87" vaporized=""/>
    <tripinfo id="flow1_rota1.3" depart="26.40" departLane="gneE0_0" departPos="5.10" departSpeed="0.00" departDelay="7.04" arrival="83.80" arrivalLane="gneE1_0" arrivalPos="310.15" arrivalSpeed="16.20" duration="57.40" routeLength="656.58" waitingTime="0.00" waitingCount="0" stopTime="0.00" timeLoss="17.24" rerouteNo="0" devices="tripinfo_flow1_rota1.3" vType="carro" speedFactor="1.18" vaporized=""/>
    <tripinfo id="flow1_rota3.3" depart="19.40" departLane="gneE2_0" departPos="5.10" departSpeed="0.00" departDelay="0.04" arrival="83.80" arrivalLane="gneE8_1" arrivalPos="327.47" arrivalSpeed="15.44" duration="64.40" routeLength="652.77" waitingTime="0.00" waitingCount="0" stopTime="0.00" timeLoss="23.56" rerouteNo="0" devices="tripinfo_flow1_rota3.3" vType="carro" speedFactor="1.15" vaporized=""/>
    <tripinfo id="flow1_rota1.1" depart="19.80" departLane="gneE0_0" departPos="5.10" departSpeed="0.00" departDelay="13.35" arrival="84.20" arrivalLane="gneE1_1" arrivalPos="310.15" arrivalSpeed="11.43" duration="64.40" routeLength="656.58" waitingTime="0.00" waitingCount="0" stopTime="0.00" timeLoss="7.05" rerouteNo="0" devices="tripinfo_flow1_rota1.1" vType="carro" speedFactor="0.83" vaporized=""/>
    <tripinfo id="flow1_rota3.2" depart="16.00" departLane="gneE2_0" departPos="5.10" departSpeed="0.00" departDelay="3.10" arrival="84.40" arrivalLane="gneE8_0" arrivalPos="327.47" arrivalSpeed="12.71" duration="68.40" routeLength="652.77" waitingTime="0.00" waitingCount="0" stopTime="0.00" timeLoss="17.76" rerouteNo="0" devices="tripinfo_flow1_rota3.2" vType="carro" speedFactor="0.93" vaporized=""/>
    <tripinfo id="flow2_rota3.2" depart="23.40" departLane="gneE2_0" departPos="2.30" departSpeed="0.00" departDelay="0.17" arrival="85.20" arrivalLane="gneE8_1" arrivalPos="327.47" arrivalSpeed="15.76" duration="61.80" routeLength="655.57" waitingTime="0.00" waitingCount="0" stopTime="0.00" timeLoss="21.35" rerouteNo="0" devices="tripinfo_flow2_rota3.2" vType="moto" speedFactor="1.17" vaporized=""/>
    <tripinfo id="flow1_rota1.4" depart="29.00" departLane="gneE0_0" departPos="5.10" departSpeed="0.00" departDelay="3.19" arrival="85.40" arrivalLane="gneE1_0" arrivalPos="310.15" arrivalSpeed="13.60" duration="56.40" routeLength="656.58" waitingTime="0.00" waitingCount="0" stopTime="0.00" timeLoss="8.87" rerouteNo="0" devices="tripinfo_flow1_rota1.4" vType="carro" speedFactor="0.99" vaporized=""/>
    <tripinfo id="flow1_rota1.2" depart="23.80" departLane="gneE0_0" departPos="5.10" departSpeed="0.00" departDelay="10.90" arrival="85.60" arrivalLane="gneE1_1" arrivalPos="310.15" arrivalSpeed="14.44" duration="61.80" routeLength="656.58" waitingTime="0.00" waitingCount="0" stopTime="0.00" timeLoss="20.01" rerouteNo="0" devices="tripinfo_flow1_rota1.2" vType="carro" speedFactor="1.13" vaporized=""/>
    <tripinfo id="flow1_rota3.4" depart="26.00" departLane="gneE2_0" departPos="5.10" departSpeed="0.00" departDelay="0.19" arrival="85.80" arrivalLane="gneE8_0" arrivalPos="327.47" arrivalSpeed="14.12" duration="59.80" routeLength="652.77" waitingTime="0.00" waitingCount="0" stopTime="0.00" timeLoss="13.65" rerouteNo="0" devices="tripinfo_flow1_rota3.4" vType="carro" speedFactor="1.02" vaporized=""/>
    <tripinfo id="flow1_rota8.0" depart="20.20" departLane="gneE9_0" departPos="5.10" departSpeed="0.00" departDelay="20.20" arrival="86.00" arrivalLane="gneE10_0" arrivalPos="213.99" arrivalSpeed="13.79" duration="65.80" routeLength="410.06" waitingTime="28.20" waitingCount="1" stopTime="0.00" timeLoss="36.55" rerouteNo="0" devices="tripinfo_flow1_rota8.0" vType="carro" speedFactor="1.01" vaporized=""/>
    <tripinfo id="flow1_rota3.5" depart="34.40" departLane="gneE2_0" departPos="5.10" departSpeed="0.00" departDelay="2.14" arrival="87.00" arrivalLane="gneE8_1" arrivalPos="327.47" arrivalSpeed="15.28" duration="52.60" routeLength="652.77" waitingTime="0.00" waitingCount="0" stopTime="0.00" timeLoss="9.96" rerouteNo="0" devices="tripinfo_flow1_rota3.5" vType="carro" speedFactor="1.10" vaporized=""/>
    <tripinfo id="flow2_rota1.2" depart="28.60" departLane="gneE0_0" departPos="2.30" departSpeed="0.00" departDelay="5.37" arrival="87.20" arrivalLane="gneE1_1" arrivalPos="310.15" arrivalSpeed="13.80" duration="58.60" routeLength="659.38" waitingTime="0.00" waitingCount="0" stopTime="0.00" timeLoss="11.26" rerouteNo="0" devices="tripinfo_flow2_rota1.2" vType="moto" speedFactor="1.01" vaporized=""/>
    <tripinfo id="flow4_rota3.1" depart="30.60" departLane="gneE2_0" departPos="12.10" departSpeed="0.00" departDelay="0.04" arrival="87.60" arrivalLane="gneE8_0" arrivalPos="327.47" arrivalSpeed="13.78" duration="57.00" routeLength="645.77" waitingTime="0.00" waitingCount="0" stopTime="0.00" timeLoss="10.37" rerouteNo="0" devices="tripinfo_flow4_rota3.1" vType="onibus" speedFactor="1.00" vaporized=""/>
    <tripinfo id="flow2_rota8.0" depart="22.40" departLane="gneE9_0" departPos="2.30" departSpeed="0.00" departDelay="22.40" arrival="88.20" arrivalLane="gneE10_0" arrivalPos="213.99" arrivalSpeed="13.24" duration="65.80" routeLength="412.86" waitingTime="24.60" waitingCount="1" stopTime="0.00" timeLoss="35.23" rerouteNo="0" devices="tripinfo_flow2_rota8.0" vType="moto" speedFactor="0.98" vaporized=""/>
    <tripinfo id="flow3_rota8.0" depart="22.80" departLane="gneE9_0" departPos="7.20" departSpeed="0.00" departDelay="22.80" arrival="92.80" arrivalLane="gneE10_0" arrivalPos="213.99" arrivalSpeed="13.08" duration="70.00" routeLength="407.96" waitingTime="20.20" waitingCount="1" stopTime="0.00" timeLoss="38.81" rerouteNo="0" devices="tripinfo_flow3_rota8.0" vType="caminhao" speedFactor="0.94" vaporized=""/>
    <tripinfo id="flow1_rota7.1" depart="41.60" departLane="gneE9_0" departPos="5.10" departSpeed="0.00" departDelay="0.13" arrival="98.60" arrivalLane="gneE1_1" arrivalPos="310.15" arrivalSpeed="14.21" duration="57.00" routeLength="499.69" waitingTime="6.40" waitingCount="1" stopTime="0.00" timeLoss="21.89" rerouteNo="0" devices="tripinfo_flow1_rota7.1" vType="carro" speedFactor="1.04" vaporized=""/>
    <tripinfo id="flow3_rota7.0" depart="10.80" departLane="gneE9_0" departPos="7.20" departSpeed="0.00" departDelay="10.80" arrival="102.80" arrivalLane="gneE1_0" arrivalPos="310.15" arrivalSpeed="13.90" duration="92.00" routeLength="502.40" waitingTime="40.00" waitingCount="2" stopTime="0.00" timeLoss="55.73" rerouteNo="0" devices="tripinfo_flow3_rota7.0" vType="caminhao" speedFactor="1.01" vaporized=""/>
    <tripinfo id="flow1_rota5.0" depart="8.40" departLane="gneE11_0" departPos="5.10" departSpeed="0.00" departDelay="8.40" arrival="109.40" arrivalLane="gneE1_0" arrivalPos="310.15" arrivalSpeed="14.30" duration="101.00" routeLength="531.14" waitingTime="39.00" waitingCount="2" stopTime="0.00" timeLoss="63.56" rerouteNo="0" devices="tripinfo_flow1_rota5.0" vType="carro" speedFactor="1.05" vaporized=""/>
    <tripinfo id="flow1_rota2.1" depart="38.60" departLane="gneE0_0" departPos="5.10" departSpeed="0.00" departDelay="6.34" arrival="112.20" arrivalLane="gneE10_0" arrivalPos="213.99" arrivalSpeed="16.14" duration="73.60" routeLength="550.95" waitingTime="20.60" waitingCount="1" stopTime="0.00" timeLoss="39.17" rerouteNo="0" devices="tripinfo_flow1_rota2.1" vType="carro" speedFactor="1.18" vaporized=""/>
    <tripinfo id="flow3_rota4.0" depart="4.60" departLane="gneE11_0" departPos="7.20" departSpeed="0.00" departDelay="4.60" arrival="112.40" arrivalLane="gneE8_0" arrivalPos="327.47" arrivalSpeed="13.95" duration="107.80" routeLength="565.80" waitingTime="43.40" waitingCount="2" stopTime="0.00" timeLoss="66.90" rerouteNo="0" devices="tripinfo_flow3_rota4.0" vType="caminhao" speedFactor="1.01" vaporized=""/>
    <tripinfo id="flow2_rota3.3" depart="36.20" departLane="gneE2_0" departPos="2.30" departSpeed="0.00" departDelay="1.36" arrival="116.20" arrivalLane="gneE8_1" arrivalPos="327.47" arrivalSpeed="14.31" duration="80.00" routeLength="655.57" waitingTime="28.40" waitingCount="1" stopTime="0.00" timeLoss="34.20" rerouteNo="0" devices="tripinfo_flow2_rota3.3" vType="moto" speedFactor="1.03" vaporized=""/>
    <tripinfo id="flow1_rota3.6" depart="38.80" departLane="gneE2_0" departPos="5.10" departSpeed="0.00" departDelay="0.09" arrival="116.80" arrivalLane="gneE8_0" arrivalPos="327.47" arrivalSpeed="15.07" duration="78.00" routeLength="652.77" waitingTime="25.80" waitingCount="1" stopTime="0.00" timeLoss="34.94" rerouteNo="0" devices="tripinfo_flow1_rota3.6" vType="carro" speedFactor="1.09" vaporized=""/>
    <tripinfo id="flow1_rota1.5" depart="36.80" departLane="gneE0_0" departPos="5.10" departSpeed="0.00" departDelay="4.54" arrival="117.60" arrivalLane="gneE1_0" arrivalPos="310.15" arrivalSpeed="13.27" duration="80.80" routeLength="656.58" waitingTime="24.00" waitingCount="1" stopTime="0.00" timeLoss="32.19" rerouteNo="0" devices="tripinfo_flow1_rota1.5" vType="carro" speedFactor="0.97" vaporized=""/>
    <tripinfo id="flow1_rota3.7" depart="45.20" departLane="gneE2_0" departPos="5.10" departSpeed="0.00" departDelay="0.04" arrival="118.40" arrivalLane="gneE8_1" arrivalPos="327.47" arrivalSpeed="14.92" duration="73.20" routeLength="652.77" waitingTime="16.00" waitingCount="1" stopTime="0.00" timeLoss="29.93" rerouteNo="0" devices="tripinfo_flow1_rota3.7" vType="carro" speedFactor="1.09" vaporized=""/>
    <tripinfo id="flow1_rota3.9" depart="58.20" departLane="gneE2_0" departPos="5.10" departSpeed="0.00" departDelay="0.13" arrival="119.80" arrivalLane="gneE8_1" arrivalPos="327.47" arrivalSpeed="15.04" duration="61.60" routeLength="652.77" waitingTime="3.80" waitingCount="1" stopTime="0.00" timeLoss="18.72" rerouteNo="0" devices="tripinfo_flow1_rota3.9" vType="carro" speedFactor="1.10" vaporized=""/>
    <tripinfo id="flow2_rota1.3" depart="40.60" departLane="gneE0_0" departPos="2.30" departSpeed="0.00" departDelay="5.76" arrival="120.80" arrivalLane="gneE1_0" arrivalPos="310.15" arrivalSpeed="11.91" duration="80.20" routeLength="659.38" waitingTime="18.00" waitingCount="1" stopTime="0.00" timeLoss="27.40" rerouteNo="0" devices="tripinfo_flow2_rota1.3" vType="moto" speedFactor="0.90" vaporized=""/>
    <tripinfo id="flow1_rota1.6" depart="41.20" departLane="gneE0_0" departPos="5.10" departSpeed="0.00" departDelay="2.49" arrival="121.40" arrivalLane="gneE1_1" arrivalPos="310.15" arrivalSpeed="13.14" duration="80.20" routeLength="656.58" waitingTime="15.60" waitingCount="1" stopTime="0.00" timeLoss="30.63" rerouteNo="0" devices="tripinfo_flow1_rota1.6" vType="carro" speedFactor="0.96" vaporized=""/>
    <tripinfo id="flow2_rota3.5" depart="60.40" departLane="gneE2_0" departPos="2.30" departSpeed="0.00" departDelay="2.34" arrival="122.40" arrivalLane="gneE8_1" arrivalPos="327.47" arrivalSpeed="13.46" duration="62.00" routeLength="655.57" waitingTime="2.20" waitingCount="1" stopTime="0.00" timeLoss="14.91" rerouteNo="0" devices="tripinfo_flow2_rota3.5" vType="moto" speedFactor="1.00" vaporized=""/>
    <tripinfo id="flow2_rota1.4" depart="47.20" departLane="gneE0_0" departPos="2.30" departSpeed="0.00" departDelay="0.75" arrival="122.80" arrivalLane="gneE1_1" arrivalPos="310.15" arrivalSpeed="13.42" duration="75.60" routeLength="659.38" waitingTime="14.40" waitingCount="1" stopTime="0.00" timeLoss="28.00" rerouteNo="0" devices="tripinfo_flow2_rota1.4" vType="moto" speedFactor="1.00" vaporized=""/>
    <tripinfo id="flow1_rota2.2" depart="67.80" departLane="gneE0_0" departPos="5.10" departSpeed="0.00" departDelay="3.28" arrival="122.80" arrivalLane="gneE10_0" arrivalPos="213.99" arrivalSpeed="13.99" duration="55.00" routeLength="550.95" waitingTime="0.00" waitingCount="0" stopTime="0.00" timeLoss="15.34" rerouteNo="0" devices="tripinfo_flow1_rota2.2" vType="carro" speedFactor="1.02" vaporized=""/>
    <tripinfo id="flow4_rota1.1" depart="32.80" departLane="gneE0_0" departPos="12.10" departSpeed="0.00" departDelay="2.24" arrival="123.00" arrivalLane="gneE1_0" arrivalPos="310.15" arrivalSpeed="13.88" duration="90.20" routeLength="649.58" waitingTime="24.60" waitingCount="1" stopTime="0.00" timeLoss="43.29" rerouteNo="0" devices="tripinfo_flow4_rota1.1" vType="onibus" speedFactor="1.00" vaporized=""/>
    <tripinfo id="flow2_rota3.4" depart="47.20" departLane="gneE2_0" departPos="2.30" departSpeed="0.00" departDelay="0.75" arrival="123.20" arrivalLane="gneE8_0" arrivalPos="327.47" arrivalSpeed="12.33" duration="76.00" routeLength="655.57" waitingTime="13.40" waitingCount="1" stopTime="0.00" timeLoss="23.41" rerouteNo="0" devices="tripinfo_flow2_rota3.4" vType="moto" speedFactor="0.90" vaporized=""/>
    <tripinfo id="flow1_rota1.9" depart="58.20" departLane="gneE0_0" departPos="5.10" departSpeed="0.00" departDelay="0.13" arrival="124.80" arrivalLane="gneE1_1" arrivalPos="310.15" arrivalSpeed="16.16" duration="66.60" routeLength="656.58" waitingTime="5.40" waitingCount="1" stopTime="0.00" timeLoss="26.09" rerouteNo="0" devices="tripinfo_flow1_rota1.9" vType="carro" speedFactor="1.17" vaporized=""/>
    <tripinfo id="flow1_rota1.7" depart="45.20" departLane="gneE0_0" departPos="5.10" departSpeed="0.00" departDelay="0.04" arrival="125.00" arrivalLane="gneE1_0" arrivalPos="310.15" arrivalSpeed="14.26" duration="79.80" routeLength="656.58" waitingTime="15.40" waitingCount="1" stopTime="0.00" timeLoss="34.31" rerouteNo="0" devices="tripinfo_flow1_rota1.7" vType="carro" speedFactor="1.04" vaporized=""/>
    <tripinfo id="flow1_rota3.10" depart="66.00" departLane="gneE2_0" departPos="5.10" departSpeed="0.00" departDelay="1.48" arrival="125.00" arrivalLane="gneE8_1" arrivalPos="327.47" arrivalSpeed="13.43" duration="59.00" routeLength="652.77" waitingTime="0.00" waitingCount="0" stopTime="0.00" timeLoss="10.43" rerouteNo="0" devices="tripinfo_flow1_rota3.10" vType="carro" speedFactor="0.97" vaporized=""/>
    <tripinfo id="flow1_rota3.8" depart="51.80" departLane="gneE2_0" departPos="5.10" departSpeed="0.00" departDelay="0.18" arrival="126.00" arrivalLane="gneE8_0" arrivalPos="327.47" arrivalSpeed="11.64" duration="74.20" routeLength="652.77" waitingTime="6.80" waitingCount="1" stopTime="0.00" timeLoss="19.13" rerouteNo="0" devices="tripinfo_flow1_rota3.8" vType="carro" speedFactor="0.85" vaporized=""/>
    <tripinfo id="flow2_rota3.6" depart="69.80" departLane="gneE2_0" departPos="2.30" departSpeed="0.00" departDelay="0.12" arrival="126.40" arrivalLane="gneE8_1" arrivalPos="327.47" arrivalSpeed="15.00" duration="56.60" routeLength="655.57" waitingTime="0.00" waitingCount="0" stopTime="0.00" timeLoss="14.39" rerouteNo="0" devices="tripinfo_flow2_rota3.6" vType="moto" speedFactor="1.12" vaporized=""/>
    <tripinfo id="flow2_rota1.5" depart="60.20" departLane="gneE0_0" departPos="2.30" departSpeed="0.00" departDelay="2.14" arrival="126.60" arrivalLane="gneE1_1" arrivalPos="310.15" arrivalSpeed="13.65" duration="66.40" routeLength="659.38" waitingTime="4.00" waitingCount="1" stopTime="0.00" timeLoss="19.59" rerouteNo="0" devices="tripinfo_flow2_rota1.5" vType="moto" speedFactor="1.02" vaporized=""/>
    <tripinfo id="flow4_rota3.2" depart="62.00" departLane="gneE2_0" departPos="12.10" departSpeed="0.00" departDelay="0.88" arrival="127.60" arrivalLane="gneE8_0" arrivalPos="327.47" arrivalSpeed="13.37" duration="65.60" routeLength="645.77" waitingTime="0.00" waitingCount="0" stopTime="0.00" timeLoss="19.10" rerouteNo="0" devices="tripinfo_flow4_rota3.2" vType="onibus" speedFactor="1.00" vaporized=""/>
    <tripinfo id="flow1_rota1.8" depart="51.80" departLane="gneE0_0" departPos="5.10" departSpeed="0.00" departDelay="0.18" arrival="128.40" arrivalLane="gneE1_0" arrivalPos="310.15" arrivalSpeed="11.68" duration="76.60" routeLength="656.58" waitingTime="6.60" waitingCount="1" stopTime="0.00" timeLoss="20.93" rerouteNo="0" devices="tripinfo_flow1_rota1.8" vType="carro" speedFactor="0.85" vaporized=""/>
    <tripinfo id="flow1_rota1.10" depart="65.80" departLane="gneE0_0" departPos="5.10" departSpeed="0.00" departDelay="1.28" arrival="128.60" arrivalLane="gneE1_1" arrivalPos="310.15" arrivalSpeed="15.71" duration="62.80" routeLength="656.58" waitingTime="0.00" waitingCount="0" stopTime="0.00" timeLoss="21.27" rerouteNo="0" devices="tripinfo_flow1_rota1.10" vType="carro" speedFactor="1.14" vaporized=""/>
    <tripinfo id="flow1_rota3.11" depart="71.40" departLane="gneE2_0" departPos="5.10" departSpeed="0.00" departDelay="0.43" arrival="128.80" arrivalLane="gneE8_1" arrivalPos="327.47" arrivalSpeed="13.70" duration="57.40" routeLength="652.77" waitingTime="0.00" waitingCount="0" stopTime="0.00" timeLoss="9.66" rerouteNo="0" devices="tripinfo_flow1_rota3.11" vType="carro" speedFactor="0.99" vaporized=""/>
    <tripinfo id="flow4_rota1.2" depart="62.00" departLane="gneE0_0" departPos="12.10" departSpeed="0.00" departDelay="0.88" arrival="130.20" arrivalLane="gneE1_0" arrivalPos="310.15" arrivalSpeed="13.23" duration="68.20" routeLength="649.58" waitingTime="0.00" waitingCount="0" stopTime="0.00" timeLoss="21.27" rerouteNo="0" devices="tripinfo_flow4_rota1.2" vType="onibus" speedFactor="1.00" vaporized=""/>
    <tripinfo id="flow2_rota1.6" depart="69.80" departLane="gneE0_0" departPos="2.30" departSpeed="0.00" departDelay="0.12" arrival="130.20" arrivalLane="gneE1_1" arrivalPos="310.15" arrivalSpeed="14.47" duration="60.40" routeLength="659.38" waitingTime="0.00" waitingCount="0" stopTime="0.00" timeLoss="16.36" rerouteNo="0" devices="tripinfo_flow2_rota1.6" vType="moto" speedFactor="1.08" vaporized=""/>
    <tripinfo id="flow2_rota3.7" depart="81.40" departLane="gneE2_0" departPos="2.30" departSpeed="0.00" departDelay="0.11" arrival="130.40" arrivalLane="gneE8_1" arrivalPos="327.47" arrivalSpeed="13.80" duration="49.00" routeLength="655.57" waitingTime="0.00" waitingCount="0" stopTime="0.00" timeLoss="2.68" rerouteNo="0" devices="tripinfo_flow2_rota3.7" vType="moto" speedFactor="1.02" vaporized=""/>
    <tripinfo id="flow1_rota3.12" depart="77.60" departLane="gneE2_0" departPos="5.10" departSpeed="0.00" departDelay="0.18" arrival="132.80" arrivalLane="gneE8_0" arrivalPos="327.47" arrivalSpeed="12.59" duration="55.20" routeLength="652.77" waitingTime="0.00" waitingCount="0" stopTime="0.00" timeLoss="3.67" rerouteNo="0" devices="tripinfo_flow1_rota3.12" vType="carro" speedFactor="0.91" vaporized=""/>
    <tripinfo id="flow4_rota7.0" depart="16.20" departLane="gneE9_0" departPos="12.10" departSpeed="0.00" departDelay="16.20" arrival="141.80" arrivalLane="gneE1_0" arrivalPos="310.15" arrivalSpeed="13.84" duration="125.60" routeLength="497.50" waitingTime="65.80" waitingCount="2" stopTime="0.00" timeLoss="89.44" rerouteNo="0" devices="tripinfo_flow4_rota7.0" vType="onibus" speedFactor="1.00" vaporized=""/>
    <tripinfo id="flow1_rota7.2" depart="83.00" departLane="gneE9_0" departPos="5.10" departSpeed="0.00" departDelay="0.05" arrival="143.20" arrivalLane="gneE1_1" arrivalPos="310.15" arrivalSpeed="14.21" duration="60.20" routeLength="504.50" waitingTime="8.80" waitingCount="1" stopTime="0.00" timeLoss="24.29" rerouteNo="0" devices="tripinfo_flow1_rota7.2" vType="carro" speedFactor="1.02" vaporized=""/>
    <tripinfo id="flow2_rota5.0" depart="10.40" departLane="gneE11_0" departPos="2.30" departSpeed="0.00" departDelay="10.40" arrival="147.80" arrivalLane="gneE1_0" arrivalPos="310.15" arrivalSpeed="15.09" duration="137.40" routeLength="533.94" waitingTime="74.20" waitingCount="3" stopTime="0.00" timeLoss="102.50" rerouteNo="0" devices="tripinfo_flow2_rota5.0" vType="moto" speedFactor="1.12" vaporized=""/>
    <tripinfo id="flow2_rota7.1" depart="72.60" departLane="gneE9_0" departPos="2.30" departSpeed="0.00" departDelay="0.02" arrival="148.20" arrivalLane="gneE1_0" arrivalPos="310.15" arrivalSpeed="12.90" duration="75.60" routeLength="502.49" waitingTime="23.60" waitingCount="2" stopTime="0.00" timeLoss="36.49" rerouteNo="0" devices="tripinfo_flow2_rota7.1" vType="moto" speedFactor="0.94" vaporized=""/>
    <tripinfo id="flow1_rota6.1" depart="48.40" departLane="gneE9_0" departPos="5.10" departSpeed="0.00" departDelay="0.01" arrival="149.80" arrivalLane="gneE8_0" arrivalPos="327.47" arrivalSpeed="12.01" duration="101.40" routeLength="509.99" waitingTime="42.20" waitingCount="3" stopTime="0.00" timeLoss="58.91" rerouteNo="0" devices="tripinfo_flow1_rota6.1" vType="carro" speedFactor="0.88" vaporized=""/>